% Model:              SPR_attempt1.mph
% Version:            COMSOL 6.0.0.405
% Date:               Sep 2 2024, 11:54
% Table:              Table 1 - Global Evaluation 1
% in_rad                 h_BSA (nm)               freq (THz)               Reflectance, port 1 (1)
1.08                     0.9999999999999999       304.66713211382114       0.9635321963944387
1.08                     1.9999999999999998       304.66713211382114       0.963433489048379
1.08                     3                        304.66713211382114       0.9633360641720681
1.08                     3.9999999999999996       304.66713211382114       0.9632398844208397
1.08                     4.999999999999999        304.66713211382114       0.9631449226805615
1.08                     6                        304.66713211382114       0.9630511931178768
1.08                     7                        304.66713211382114       0.9629586667423223
1.08                     7.999999999999999        304.66713211382114       0.9628673147878373
1.08                     9                        304.66713211382114       0.9627770996940707
1.08                     9.999999999999998        304.66713211382114       0.9626880451890341
1.08                     11                       304.66713211382114       0.9626001100581202
1.08                     12                       304.66713211382114       0.9625132798007391
1.08                     12.999999999999998       304.66713211382114       0.9624275326185036
1.08                     14                       304.66713211382114       0.9623428574756987
1.08                     15                       304.66713211382114       0.9622592189677107
1.08                     15.999999999999998       304.66713211382114       0.9621766254983843
1.08                     16.999999999999996       304.66713211382114       0.9620950318023916
1.08                     18                       304.66713211382114       0.9620144174283046
1.08                     19                       304.66713211382114       0.9619347972255368
1.08                     19.999999999999996       304.66713211382114       0.9618561316722348
1.08                     21                       304.66713211382114       0.9617784153979244
1.08                     22                       304.66713211382114       0.961701614867351
1.08                     22.999999999999996       304.66713211382114       0.9616257273168665
1.08                     24                       304.66713211382114       0.9615507343834699
1.08                     25                       304.66713211382114       0.9614766157281877
1.08                     25.999999999999996       304.66713211382114       0.961403368110906
1.08                     26.999999999999996       304.66713211382114       0.9613309600987271
1.08                     28                       304.66713211382114       0.9612593695252275
1.08                     28.999999999999996       304.66713211382114       0.9611885937073626
1.08                     30                       304.66713211382114       0.9611186266705259
1.08                     30.999999999999996       304.66713211382114       0.9610494633136726
1.08                     31.999999999999996       304.66713211382114       0.9609810370021511
1.08                     33                       304.66713211382114       0.9609133863567921
1.08                     33.99999999999999        304.66713211382114       0.96084648132067
1.08                     35                       304.66713211382114       0.9607803068823224
1.08                     36                       304.66713211382114       0.960714850047361
1.08                     36.99999999999999        304.66713211382114       0.9606500986767689
1.08                     38                       304.66713211382114       0.9605860409069357
1.08                     39                       304.66713211382114       0.960522657953123
1.08                     39.99999999999999        304.66713211382114       0.9604599535511992
1.08                     41                       304.66713211382114       0.9603978998249529
1.08                     42                       304.66713211382114       0.9603364876776156
1.08                     42.99999999999999        304.66713211382114       0.9602757095535217
1.08                     44                       304.66713211382114       0.9602155544672429
1.08                     45                       304.66713211382114       0.9601560114989721
1.08                     45.99999999999999        304.66713211382114       0.9600970739029189
1.08                     47                       304.66713211382114       0.9600387224143713
1.08                     48                       304.66713211382114       0.959980967707028
1.08                     48.99999999999999        304.66713211382114       0.959923740669891
1.08                     50                       304.66713211382114       0.9598670965458643
1.08                     50.99999999999999        304.66713211382114       0.9598110038227875
1.08                     51.99999999999999        304.66713211382114       0.9597554499705468
1.08                     53                       304.66713211382114       0.9597004320207951
1.08                     53.99999999999999        304.66713211382114       0.9596459306883862
1.08                     54.99999999999999        304.66713211382114       0.9595919468153342
1.08                     56                       304.66713211382114       0.9595384635061288
1.08                     56.99999999999999        304.66713211382114       0.959485475548765
1.08                     57.99999999999999        304.66713211382114       0.9594329744073223
1.08                     59                       304.66713211382114       0.959380954740181
1.08                     60                       304.66713211382114       0.9593294021865331
1.081                    0.9999999999999999       304.66713211382114       0.9640899620325442
1.081                    1.9999999999999998       304.66713211382114       0.963983791962635
1.081                    3                        304.66713211382114       0.9638789917879071
1.081                    3.9999999999999996       304.66713211382114       0.9637755289678128
1.081                    4.999999999999999        304.66713211382114       0.9636733781608497
1.081                    6                        304.66713211382114       0.9635725561266697
1.081                    7                        304.66713211382114       0.9634730361210532
1.081                    7.999999999999999        304.66713211382114       0.9633747910892899
1.081                    9                        304.66713211382114       0.9632777851070031
1.081                    9.999999999999998        304.66713211382114       0.9631820416283534
1.081                    11                       304.66713211382114       0.963087520247715
1.081                    12                       304.66713211382114       0.9629942070301137
1.081                    12.999999999999998       304.66713211382114       0.9629020800757563
1.081                    14                       304.66713211382114       0.9628111281666314
1.081                    15                       304.66713211382114       0.9627213151171853
1.081                    15.999999999999998       304.66713211382114       0.9626326494177826
1.081                    16.999999999999996       304.66713211382114       0.9625450861884842
1.081                    18                       304.66713211382114       0.9624586012867238
1.081                    19                       304.66713211382114       0.9623732103118359
1.081                    19.999999999999996       304.66713211382114       0.9622888721077404
1.081                    21                       304.66713211382114       0.9622055808617879
1.081                    22                       304.66713211382114       0.9621233011989726
1.081                    22.999999999999996       304.66713211382114       0.962042029557474
1.081                    24                       304.66713211382114       0.9619617462440581
1.081                    25                       304.66713211382114       0.9618824292298215
1.081                    25.999999999999996       304.66713211382114       0.9618040748335823
1.081                    26.999999999999996       304.66713211382114       0.9617266488703489
1.081                    28                       304.66713211382114       0.9616501294824256
1.081                    28.999999999999996       304.66713211382114       0.9615745106276448
1.081                    30                       304.66713211382114       0.9614997857591785
1.081                    30.999999999999996       304.66713211382114       0.9614259483707076
1.081                    31.999999999999996       304.66713211382114       0.9613529305578692
1.081                    33                       304.66713211382114       0.9612807692032505
1.081                    33.99999999999999        304.66713211382114       0.9612094329322892
1.081                    35                       304.66713211382114       0.961138905308017
1.081                    36                       304.66713211382114       0.961069171786648
1.081                    36.99999999999999        304.66713211382114       0.961000219175992
1.081                    38                       304.66713211382114       0.9609320336627727
1.081                    39                       304.66713211382114       0.9608645952231849
1.081                    39.99999999999999        304.66713211382114       0.9607979069200854
1.081                    41                       304.66713211382114       0.9607319387195092
1.081                    42                       304.66713211382114       0.9606666803010502
1.081                    42.99999999999999        304.66713211382114       0.9606021237708746
1.081                    44                       304.66713211382114       0.9605382557361235
1.081                    45                       304.66713211382114       0.9604750640043519
1.081                    45.99999999999999        304.66713211382114       0.9604125410197759
1.081                    47                       304.66713211382114       0.9603506659525634
1.081                    48                       304.66713211382114       0.9602894484524435
1.081                    48.99999999999999        304.66713211382114       0.9602288180662195
1.081                    50                       304.66713211382114       0.9601688293136612
1.081                    50.99999999999999        304.66713211382114       0.960109449156971
1.081                    51.99999999999999        304.66713211382114       0.9600506641582863
1.081                    53                       304.66713211382114       0.9599924702835948
1.081                    53.99999999999999        304.66713211382114       0.9599348470024663
1.081                    54.99999999999999        304.66713211382114       0.9598777941284035
1.081                    56                       304.66713211382114       0.9598212936107382
1.081                    56.99999999999999        304.66713211382114       0.9597653393824759
1.081                    57.99999999999999        304.66713211382114       0.9597099218272793
1.081                    59                       304.66713211382114       0.9596550344913665
1.081                    60                       304.66713211382114       0.9596006624547149
1.082                    0.9999999999999999       304.66713211382114       0.9646123123180984
1.082                    1.9999999999999998       304.66713211382114       0.9644993461346504
1.082                    3                        304.66713211382114       0.9643877934171371
1.082                    3.9999999999999996       304.66713211382114       0.9642776303313045
1.082                    4.999999999999999        304.66713211382114       0.9641688370325224
1.082                    6                        304.66713211382114       0.9640614361764993
1.082                    7                        304.66713211382114       0.9639554061415135
1.082                    7.999999999999999        304.66713211382114       0.9638507241593602
1.082                    9                        304.66713211382114       0.9637473582176591
1.082                    9.999999999999998        304.66713211382114       0.9636453339483382
1.082                    11                       304.66713211382114       0.9635446135264655
1.082                    12                       304.66713211382114       0.9634451853365439
1.082                    12.999999999999998       304.66713211382114       0.9633470289808133
1.082                    14                       304.66713211382114       0.9632501344903575
1.082                    15                       304.66713211382114       0.9631544662127691
1.082                    15.999999999999998       304.66713211382114       0.9630600338953856
1.082                    16.999999999999996       304.66713211382114       0.9629667938559539
1.082                    18                       304.66713211382114       0.9628747196751185
1.082                    19                       304.66713211382114       0.962783828433205
1.082                    19.999999999999996       304.66713211382114       0.9626940781374834
1.082                    21                       304.66713211382114       0.9626054632162269
1.082                    22                       304.66713211382114       0.9625179471593724
1.082                    22.999999999999996       304.66713211382114       0.9624315262077131
1.082                    24                       304.66713211382114       0.962346179870369
1.082                    25                       304.66713211382114       0.9622618849779286
1.082                    25.999999999999996       304.66713211382114       0.9621786377779695
1.082                    26.999999999999996       304.66713211382114       0.9620964019078577
1.082                    28                       304.66713211382114       0.9620151558683451
1.082                    28.999999999999996       304.66713211382114       0.96193489102217
1.082                    30                       304.66713211382114       0.9618556004343972
1.082                    30.999999999999996       304.66713211382114       0.9617772764484855
1.082                    31.999999999999996       304.66713211382114       0.961699850149454
1.082                    33                       304.66713211382114       0.9616233569612647
1.082                    33.99999999999999        304.66713211382114       0.9615477644118483
1.082                    35                       304.66713211382114       0.9614730548364883
1.082                    36                       304.66713211382114       0.9613992123528043
1.082                    36.99999999999999        304.66713211382114       0.9613262228429791
1.082                    38                       304.66713211382114       0.9612540708064495
1.082                    39                       304.66713211382114       0.9611827350414172
1.082                    39.99999999999999        304.66713211382114       0.9611122180939144
1.082                    41                       304.66713211382114       0.9610424879120149
1.082                    42                       304.66713211382114       0.9609735330775675
1.082                    42.99999999999999        304.66713211382114       0.9609053453296094
1.082                    44                       304.66713211382114       0.9608379091528031
1.082                    45                       304.66713211382114       0.9607712111652583
1.082                    45.99999999999999        304.66713211382114       0.9607052430336034
1.082                    47                       304.66713211382114       0.960639982468069
1.082                    48                       304.66713211382114       0.960575438143861
1.082                    48.99999999999999        304.66713211382114       0.9605115383707671
1.082                    50                       304.66713211382114       0.9604483369377185
1.082                    50.99999999999999        304.66713211382114       0.9603857994034803
1.082                    51.99999999999999        304.66713211382114       0.9603239114355063
1.082                    53                       304.66713211382114       0.9602626680013949
1.082                    53.99999999999999        304.66713211382114       0.9602020473624749
1.082                    54.99999999999999        304.66713211382114       0.9601420484025704
1.082                    56                       304.66713211382114       0.9600826519168716
1.082                    56.99999999999999        304.66713211382114       0.9600238510281057
1.082                    57.99999999999999        304.66713211382114       0.9599656350748211
1.082                    59                       304.66713211382114       0.9599079965878229
1.082                    60                       304.66713211382114       0.9598509200055653
1.083                    0.9999999999999999       304.66713211382114       0.9651035569684034
1.083                    1.9999999999999998       304.66713211382114       0.964984554361587
1.083                    3                        304.66713211382114       0.9648669521782824
1.083                    3.9999999999999996       304.66713211382114       0.9647507406094921
1.083                    4.999999999999999        304.66713211382114       0.964635910273601
1.083                    6                        304.66713211382114       0.9645224940661773
1.083                    7                        304.66713211382114       0.9644104793578958
1.083                    7.999999999999999        304.66713211382114       0.9642998511306918
1.083                    9                        304.66713211382114       0.9641905843609989
1.083                    9.999999999999998        304.66713211382114       0.9640827099003043
1.083                    11                       304.66713211382114       0.9639761949378933
1.083                    12                       304.66713211382114       0.9638710324708787
1.083                    12.999999999999998       304.66713211382114       0.9637672056928608
1.083                    14                       304.66713211382114       0.9636647077449692
1.083                    15                       304.66713211382114       0.9635635052211484
1.083                    15.999999999999998       304.66713211382114       0.9634636106263733
1.083                    16.999999999999996       304.66713211382114       0.9633649826745029
1.083                    18                       304.66713211382114       0.9632675942680149
1.083                    19                       304.66713211382114       0.963171464968654
1.083                    19.999999999999996       304.66713211382114       0.963076552981659
1.083                    21                       304.66713211382114       0.9629828538657754
1.083                    22                       304.66713211382114       0.9628903308632959
1.083                    22.999999999999996       304.66713211382114       0.9627989807774348
1.083                    24                       304.66713211382114       0.9627087830047724
1.083                    25                       304.66713211382114       0.96261971391008
1.083                    25.999999999999996       304.66713211382114       0.9625317701748354
1.083                    26.999999999999996       304.66713211382114       0.9624449139145015
1.083                    28                       304.66713211382114       0.9623591242118853
1.083                    28.999999999999996       304.66713211382114       0.9622743905875947
1.083                    30                       304.66713211382114       0.9621907060170362
1.083                    30.999999999999996       304.66713211382114       0.9621080620284572
1.083                    31.999999999999996       304.66713211382114       0.9620263890228228
1.083                    33                       304.66713211382114       0.9619457212978381
1.083                    33.99999999999999        304.66713211382114       0.9618660255583152
1.083                    35                       304.66713211382114       0.9617872831608377
1.083                    36                       304.66713211382114       0.9617094771349551
1.083                    36.99999999999999        304.66713211382114       0.9616325926152859
1.083                    38                       304.66713211382114       0.9615566126890852
1.083                    39                       304.66713211382114       0.9614815150905615
1.083                    39.99999999999999        304.66713211382114       0.9614073020296632
1.083                    41                       304.66713211382114       0.9613339396012038
1.083                    42                       304.66713211382114       0.9612614154375113
1.083                    42.99999999999999        304.66713211382114       0.9611897209348229
1.083                    44                       304.66713211382114       0.961118838713869
1.083                    45                       304.66713211382114       0.9610487543120043
1.083                    45.99999999999999        304.66713211382114       0.9609794586760283
1.083                    47                       304.66713211382114       0.9609109281717371
1.083                    48                       304.66713211382114       0.9608431705679886
1.083                    48.99999999999999        304.66713211382114       0.9607761130461022
1.083                    50                       304.66713211382114       0.9607098086827252
1.083                    50.99999999999999        304.66713211382114       0.9606442217511104
1.083                    51.99999999999999        304.66713211382114       0.9605793370558623
1.083                    53                       304.66713211382114       0.9605151486367182
1.083                    53.99999999999999        304.66713211382114       0.9604516335955878
1.083                    54.99999999999999        304.66713211382114       0.96038878997723
1.083                    56                       304.66713211382114       0.9603265974397707
1.083                    56.99999999999999        304.66713211382114       0.9602650483447505
1.083                    57.99999999999999        304.66713211382114       0.9602041310248536
1.083                    59                       304.66713211382114       0.960143837081512
1.083                    60                       304.66713211382114       0.9600841502611648
1.084                    0.9999999999999999       304.66713211382114       0.9655665617991895
1.084                    1.9999999999999998       304.66713211382114       0.965442407520553
1.084                    3                        304.66713211382114       0.9653195681057174
1.084                    3.9999999999999996       304.66713211382114       0.9651980548972068
1.084                    4.999999999999999        304.66713211382114       0.9650778755341125
1.084                    6                        304.66713211382114       0.9649590788393262
1.084                    7                        304.66713211382114       0.9648416662963483
1.084                    7.999999999999999        304.66713211382114       0.9647256352071709
1.084                    9                        304.66713211382114       0.9646109716048447
1.084                    9.999999999999998        304.66713211382114       0.964497715380559
1.084                    11                       304.66713211382114       0.9643858419712151
1.084                    12                       304.66713211382114       0.964275351948585
1.084                    12.999999999999998       304.66713211382114       0.9641662347857496
1.084                    14                       304.66713211382114       0.9640584891237544
1.084                    15                       304.66713211382114       0.96395208600054
1.084                    15.999999999999998       304.66713211382114       0.9638470425876815
1.084                    16.999999999999996       304.66713211382114       0.9637433216272364
1.084                    18                       304.66713211382114       0.9636408972119944
1.084                    19                       304.66713211382114       0.9635397926978979
1.084                    19.999999999999996       304.66713211382114       0.9634399678037243
1.084                    21                       304.66713211382114       0.9633414203521184
1.084                    22                       304.66713211382114       0.963244114444019
1.084                    22.999999999999996       304.66713211382114       0.9631480483947897
1.084                    24                       304.66713211382114       0.9630532023527566
1.084                    25                       304.66713211382114       0.9629595530426562
1.084                    25.999999999999996       304.66713211382114       0.9628670982374316
1.084                    26.999999999999996       304.66713211382114       0.9627757992936984
1.084                    28                       304.66713211382114       0.962685636269709
1.084                    28.999999999999996       304.66713211382114       0.9625965976284211
1.084                    30                       304.66713211382114       0.9625086766705028
1.084                    30.999999999999996       304.66713211382114       0.9624218645342597
1.084                    31.999999999999996       304.66713211382114       0.9623360913404464
1.084                    33                       304.66713211382114       0.9622513906554484
1.084                    33.99999999999999        304.66713211382114       0.962167728699179
1.084                    35                       304.66713211382114       0.96208508615497
1.084                    36                       304.66713211382114       0.9620034452621059
1.084                    36.99999999999999        304.66713211382114       0.9619227906394345
1.084                    38                       304.66713211382114       0.9618431042609313
1.084                    39                       304.66713211382114       0.9617643629630221
1.084                    39.99999999999999        304.66713211382114       0.961686568829795
1.084                    41                       304.66713211382114       0.9616096862968567
1.084                    42                       304.66713211382114       0.9615337022211683
1.084                    42.99999999999999        304.66713211382114       0.9614586077278969
1.084                    44                       304.66713211382114       0.9613843838219056
1.084                    45                       304.66713211382114       0.9613110150933338
1.084                    45.99999999999999        304.66713211382114       0.9612384918521019
1.084                    47                       304.66713211382114       0.9611667892486262
1.084                    48                       304.66713211382114       0.961095914232241
1.084                    48.99999999999999        304.66713211382114       0.961025792971951
1.084                    50                       304.66713211382114       0.9609564778733495
1.084                    50.99999999999999        304.66713211382114       0.9608879320435811
1.084                    51.99999999999999        304.66713211382114       0.9608201394731767
1.084                    53                       304.66713211382114       0.9607530933494798
1.084                    53.99999999999999        304.66713211382114       0.9606867696756998
1.084                    54.99999999999999        304.66713211382114       0.9606211657447716
1.084                    56                       304.66713211382114       0.9605562601087688
1.084                    56.99999999999999        304.66713211382114       0.9604920444218898
1.084                    57.99999999999999        304.66713211382114       0.9604285060554127
1.084                    59                       304.66713211382114       0.9603656357612724
1.084                    60                       304.66713211382114       0.9603034165676106
1.085                    0.9999999999999999       304.66713211382114       0.9660029931936251
1.085                    1.9999999999999998       304.66713211382114       0.965874735037649
1.085                    3                        304.66713211382114       0.9657476137293253
1.085                    3.9999999999999996       304.66713211382114       0.9656216712118576
1.085                    4.999999999999999        304.66713211382114       0.9654969407485698
1.085                    6                        304.66713211382114       0.9653734945106824
1.085                    7                        304.66713211382114       0.9652513547966797
1.085                    7.999999999999999        304.66713211382114       0.9651305371941461
1.085                    9                        304.66713211382114       0.9650110440970668
1.085                    9.999999999999998        304.66713211382114       0.9648929292643439
1.085                    11                       304.66713211382114       0.9647761805979126
1.085                    12                       304.66713211382114       0.9646608100389391
1.085                    12.999999999999998       304.66713211382114       0.9645468167713638
1.085                    14                       304.66713211382114       0.9644342079807718
1.085                    15                       304.66713211382114       0.9643229619397093
1.085                    15.999999999999998       304.66713211382114       0.9642131029001754